                         Program Version 5.0.4 -  RELEASE  -
|  1> # Formula: C-F-F-H_radical
|  2>
|  3> ! UKS NORI TightSCF PBE0 aug-cc-PVTZ-J xyzfile opt NOPOP
|  4> %base "C-F-F-H_radical_opt"
|  5>
|  6> * xyz 0 2
|  7> C	-0.001	0.071	0.318
|  8> F	1.156	-0.568	-0.097
|  9> F	-1.134	-0.601	-0.097
| 10> H	-0.021	1.098	-0.124
| 11> *
| 12>
| 13> $new_job
| 14> ! UKS NORI PBE0 aug-cc-PVTZ-J NBO
| 15> %base "C-F-F-H_radical_EPR"
| 16>
| 17> *xyzfile 0 2
| 18>
| 19> %EPRNMR
| 20> 	GTENSOR		TRUE
| 21> 	NUCLEI		= ALL C  {AISO, ADIP, AORB}
| 22> 	NUCLEI		= ALL H  {AISO, ADIP, AORB}
| 23> 	NUCLEI		= ALL F  {AISO, ADIP, AORB}
| 24> 	NUCLEI		= ALL Cl {AISO, ADIP, AORB}
| 25> 	NUCLEI		= ALL Br {AISO, ADIP, AORB}
| 26> 	NUCLEI		= ALL I  {AISO, ADIP, AORB}
| 27> END
| 28>
| 29> %NBO
| 30> 	NBOKEYLIST = "$NBO NBO NPA AONBO=C PRINT=1 ARCHIVE $END"
| 31> END
| 32>
| 33>                          ****END OF INPUT****
 Total Charge           Charge          ....    0
 Multiplicity           Mult            ....    2
 Number of Electrons    NEL             ....   25
FINAL SINGLE POINT ENERGY      -238.174507744588
FINAL SINGLE POINT ENERGY      -238.181963863398
FINAL SINGLE POINT ENERGY      -238.182980055741
FINAL SINGLE POINT ENERGY      -238.183018665333
FINAL SINGLE POINT ENERGY      -238.183019460220
                    ***********************HURRAY********************
FINAL SINGLE POINT ENERGY      -238.183019582810

CARTESIAN COORDINATES (ANGSTROEM)
---------------------------------
  C     -0.001412    0.078346    0.242303
  F      1.099869   -0.578467   -0.074851
  F     -1.080333   -0.614307   -0.074653
  H     -0.018124    1.114428   -0.092799

 Multiplicity           Mult            ....    2
 Number of Electrons    NEL             ....   25
 Basis Dimension        Dim             ....  158

ORBITAL ENERGIES
----------------
                 SPIN UP ORBITALS
  NO   OCC          E(Eh)            E(eV)
   0   1.0000     -24.818596      -675.3483
   1   1.0000     -24.818516      -675.3461
   2   1.0000     -10.398070      -282.9459
   3   1.0000      -1.331843       -36.2413
   4   1.0000      -1.273324       -34.6489
   5   1.0000      -0.734815       -19.9953
   6   1.0000      -0.600618       -16.3437
   7   1.0000      -0.600411       -16.3380
   8   1.0000      -0.559822       -15.2335
   9   1.0000      -0.484486       -13.1835
  10   1.0000      -0.456294       -12.4164
  11   1.0000      -0.446824       -12.1587
  12   1.0000      -0.255167        -6.9434
  13   0.0000       0.003002         0.0817
  14   0.0000       0.036111         0.9826
  15   0.0000       0.037771         1.0278
  16   0.0000       0.046466         1.2644
  17   0.0000       0.094751         2.5783

                 SPIN DOWN ORBITALS
  NO   OCC          E(Eh)            E(eV)
   0   1.0000     -24.814856      -675.2466
   1   1.0000     -24.814777      -675.2444
   2   1.0000     -10.381455      -282.4938
   3   1.0000      -1.322081       -35.9756
   4   1.0000      -1.265356       -34.4321
   5   1.0000      -0.710708       -19.3394
   6   1.0000      -0.593016       -16.1368
   7   1.0000      -0.589576       -16.0432
   8   1.0000      -0.522583       -14.2202
   9   1.0000      -0.462875       -12.5955
  10   1.0000      -0.452547       -12.3144
  11   1.0000      -0.437467       -11.9041
  12   0.0000      -0.060124        -1.6361
  13   0.0000       0.007717         0.2100
  14   0.0000       0.040064         1.0902
  15   0.0000       0.041427         1.1273
  16   0.0000       0.062176         1.6919

MULLIKEN ATOMIC CHARGES AND SPIN POPULATIONS
--------------------------------------------
   0 C :    0.197387    0.895642
   1 F :   -0.189634    0.047630
   2 F :   -0.189503    0.047654
   3 H :    0.181751    0.009074
Sum of atomic charges         :    0.0000000

LOEWDIN ATOMIC CHARGES AND SPIN POPULATIONS
-------------------------------------------
   0 C :   -0.256718    0.648230
   1 F :    0.170710    0.134023
   2 F :    0.170946    0.134078
   3 H :   -0.084938    0.083669

  Mayer bond orders larger than 0.100000
B(  0-C ,  1-F ) :   1.0530 B(  0-C ,  2-F ) :   1.0532 B(  0-C ,  3-H ) :   0.9488

FINAL SINGLE POINT ENERGY      -238.183019583235

DIPOLE MOMENT
-------------
                                X             Y             Z
Electronic contribution:      0.02009      -1.25582      -0.11499
Nuclear contribution   :     -0.02908       1.78131       0.05104
                        -----------------------------------------
Total Dipole Moment    :     -0.00899       0.52549      -0.06395
                        -----------------------------------------
Magnitude (a.u.)       :      0.52944
Magnitude (Debye)      :      1.34573

Rotational constants in cm-1:     2.261927     0.370037     0.322798
Rotational constants in MHz : 67810.870367 11093.442914  9677.255303

                             ****ORCA TERMINATED NORMALLY****
TOTAL RUN TIME: 0 days 0 hours 5 minutes 18 seconds 743 msec
