                         Program Version 5.0.4 -  RELEASE  -
|  1> # Formula: C-Cl-F-H_radical
|  2>
|  3> ! UKS NORI TightSCF PBE0 aug-cc-PVTZ-J xyzfile opt NOPOP
|  4> %base "C-Cl-F-H_radical_opt"
|  5>
|  6> * xyz 0 2
|  7> C	-0.144	0.109	0.357
|  8> Cl	1.544	-0.231	-0.084
|  9> F	-0.935	-0.920	-0.115
| 10> H	-0.465	1.042	-0.158
| 11> *
| 12>
| 13> $new_job
| 14> ! UKS NORI PBE0 aug-cc-PVTZ-J NBO
| 15> %base "C-Cl-F-H_radical_EPR"
| 16>
| 17> *xyzfile 0 2
| 18>
| 19> %EPRNMR
| 20> 	GTENSOR		TRUE
| 21> 	NUCLEI		= ALL C  {AISO, ADIP, AORB}
| 22> 	NUCLEI		= ALL H  {AISO, ADIP, AORB}
| 23> 	NUCLEI		= ALL F  {AISO, ADIP, AORB}
| 24> 	NUCLEI		= ALL Cl {AISO, ADIP, AORB}
| 25> 	NUCLEI		= ALL Br {AISO, ADIP, AORB}
| 26> 	NUCLEI		= ALL I  {AISO, ADIP, AORB}
| 27> END
| 28>
| 29> %NBO
| 30> 	NBOKEYLIST = "$NBO NBO NPA AONBO=C PRINT=1 ARCHIVE $END"
| 31> END
| 32>
| 33>                          ****END OF INPUT****
 Total Charge           Charge          ....    0
 Multiplicity           Mult            ....    2
 Number of Electrons    NEL             ....   33
FINAL SINGLE POINT ENERGY      -598.459103280046
FINAL SINGLE POINT ENERGY      -598.466927958796
FINAL SINGLE POINT ENERGY      -598.469185950867
FINAL SINGLE POINT ENERGY      -598.469316951855
FINAL SINGLE POINT ENERGY      -598.469341910814
FINAL SINGLE POINT ENERGY      -598.469345399506
FINAL SINGLE POINT ENERGY      -598.469346377228
                    ***********************HURRAY********************
FINAL SINGLE POINT ENERGY      -598.469346439682

CARTESIAN COORDINATES (ANGSTROEM)
---------------------------------
  C     -0.116008    0.089733    0.206337
  Cl     1.531236   -0.234733   -0.042130
  F     -0.932765   -0.917822   -0.064939
  H     -0.482463    1.062822   -0.099269

 Multiplicity           Mult            ....    2
 Number of Electrons    NEL             ....   33
 Basis Dimension        Dim             ....  180

ORBITAL ENERGIES
----------------
                 SPIN UP ORBITALS
  NO   OCC          E(Eh)            E(eV)
   0   1.0000    -101.735630     -2768.3672
   1   1.0000     -24.817974      -675.3314
   2   1.0000     -10.374402      -282.3018
   3   1.0000      -9.561263      -260.1752
   4   1.0000      -7.294734      -198.4998
   5   1.0000      -7.288251      -198.3234
   6   1.0000      -7.286578      -198.2779
   7   1.0000      -1.300483       -35.3879
   8   1.0000      -0.918606       -24.9965
   9   1.0000      -0.703357       -19.1393
  10   1.0000      -0.574837       -15.6421
  11   1.0000      -0.541532       -14.7358
  12   1.0000      -0.529868       -14.4184
  13   1.0000      -0.423611       -11.5270
  14   1.0000      -0.390397       -10.6232
  15   1.0000      -0.359603        -9.7853
  16   1.0000      -0.243827        -6.6349
  17   0.0000      -0.000892        -0.0243
  18   0.0000       0.013254         0.3606
  19   0.0000       0.037314         1.0154
  20   0.0000       0.046911         1.2765
  21   0.0000       0.050015         1.3610

                 SPIN DOWN ORBITALS
  NO   OCC          E(Eh)            E(eV)
   0   1.0000    -101.734785     -2768.3442
   1   1.0000     -24.814212      -675.2290
   2   1.0000     -10.358350      -281.8650
   3   1.0000      -9.560441      -260.1528
   4   1.0000      -7.294309      -198.4882
   5   1.0000      -7.286137      -198.2659
   6   1.0000      -7.285358      -198.2447
   7   1.0000      -1.291439       -35.1419
   8   1.0000      -0.908857       -24.7313
   9   1.0000      -0.679839       -18.4994
  10   1.0000      -0.564590       -15.3633
  11   1.0000      -0.532562       -14.4918
  12   1.0000      -0.494664       -13.4605
  13   1.0000      -0.416579       -11.3357
  14   1.0000      -0.368406       -10.0248
  15   1.0000      -0.357471        -9.7273
  16   0.0000      -0.070313        -1.9133
  17   0.0000       0.003479         0.0947
  18   0.0000       0.020540         0.5589
  19   0.0000       0.041010         1.1160
  20   0.0000       0.053813         1.4643

MULLIKEN ATOMIC CHARGES AND SPIN POPULATIONS
--------------------------------------------
   0 C :    0.044310    0.887560
   1 Cl:   -0.044375    0.085438
   2 F :   -0.193645    0.051619
   3 H :    0.193709   -0.024617
Sum of atomic charges         :   -0.0000000

LOEWDIN ATOMIC CHARGES AND SPIN POPULATIONS
-------------------------------------------
   0 C :   -0.575825    0.634213
   1 Cl:    0.581137    0.161790
   2 F :    0.125335    0.134866
   3 H :   -0.130647    0.069131

  Mayer bond orders larger than 0.100000
B(  0-C ,  1-Cl) :   1.1752 B(  0-C ,  2-F ) :   1.0004 B(  0-C ,  3-H ) :   0.9304

FINAL SINGLE POINT ENERGY      -598.469346437952

DIPOLE MOMENT
-------------
                                X             Y             Z
Electronic contribution:      0.89534      -1.25548      -0.10173
Nuclear contribution   :     -0.95959       1.69697       0.01670
                        -----------------------------------------
Total Dipole Moment    :     -0.06425       0.44149      -0.08503
                        -----------------------------------------
Magnitude (a.u.)       :      0.45417
Magnitude (Debye)      :      1.15440

Rotational constants in cm-1:     1.971661     0.197065     0.180235
Rotational constants in MHz : 59108.899128  5907.869235  5403.296206

                             ****ORCA TERMINATED NORMALLY****
TOTAL RUN TIME: 0 days 0 hours 10 minutes 56 seconds 387 msec
