                         Program Version 5.0.4 -  RELEASE  -
|  1> # Formula: C-Cl-H-H_radical
|  2>
|  3> ! UKS NORI TightSCF PBE0 aug-cc-PVTZ-J xyzfile opt NOPOP
|  4> %base "C-Cl-H-H_radical_opt"
|  5>
|  6> * xyz 0 2
|  7> C	-0.200	-0.008	0.330
|  8> Cl	1.539	-0.003	-0.070
|  9> H	-0.688	-0.890	-0.132
| 10> H	-0.651	0.901	-0.128
| 11> *
| 12>
| 13> $new_job
| 14> ! UKS NORI PBE0 aug-cc-PVTZ-J NBO
| 15> %base "C-Cl-H-H_radical_EPR"
| 16>
| 17> *xyzfile 0 2
| 18>
| 19> %EPRNMR
| 20> 	GTENSOR		TRUE
| 21> 	NUCLEI		= ALL C  {AISO, ADIP, AORB}
| 22> 	NUCLEI		= ALL H  {AISO, ADIP, AORB}
| 23> 	NUCLEI		= ALL F  {AISO, ADIP, AORB}
| 24> 	NUCLEI		= ALL Cl {AISO, ADIP, AORB}
| 25> 	NUCLEI		= ALL Br {AISO, ADIP, AORB}
| 26> 	NUCLEI		= ALL I  {AISO, ADIP, AORB}
| 27> END
| 28>
| 29> %NBO
| 30> 	NBOKEYLIST = "$NBO NBO NPA AONBO=C PRINT=1 ARCHIVE $END"
| 31> END
| 32>
| 33>                          ****END OF INPUT****
 Total Charge           Charge          ....    0
 Multiplicity           Mult            ....    2
 Number of Electrons    NEL             ....   25
FINAL SINGLE POINT ENERGY      -499.268744331421
FINAL SINGLE POINT ENERGY      -499.277222394260
FINAL SINGLE POINT ENERGY      -499.281390984225
FINAL SINGLE POINT ENERGY      -499.282190536778
FINAL SINGLE POINT ENERGY      -499.282617179304
FINAL SINGLE POINT ENERGY      -499.282746735239
FINAL SINGLE POINT ENERGY      -499.282794158089
FINAL SINGLE POINT ENERGY      -499.282806438154
FINAL SINGLE POINT ENERGY      -499.282808011160
                    ***********************HURRAY********************
FINAL SINGLE POINT ENERGY      -499.282808132175

CARTESIAN COORDINATES (ANGSTROEM)
---------------------------------
  C     -0.168717    0.001518   -0.000770
  Cl     1.516637   -0.013888    0.006415
  H     -0.682732   -0.945411   -0.006079
  H     -0.665188    0.957781    0.000433

 Multiplicity           Mult            ....    2
 Number of Electrons    NEL             ....   25
 Basis Dimension        Dim             ....  154

ORBITAL ENERGIES
----------------
                 SPIN UP ORBITALS
  NO   OCC          E(Eh)            E(eV)
   0   1.0000    -101.723208     -2768.0292
   1   1.0000     -10.290842      -280.0281
   2   1.0000      -9.548291      -259.8222
   3   1.0000      -7.281386      -198.1366
   4   1.0000      -7.276292      -197.9980
   5   1.0000      -7.273316      -197.9170
   6   1.0000      -0.909332       -24.7442
   7   1.0000      -0.683363       -18.5952
   8   1.0000      -0.491860       -13.3842
   9   1.0000      -0.461137       -12.5482
  10   1.0000      -0.399420       -10.8688
  11   1.0000      -0.330534        -8.9943
  12   1.0000      -0.232526        -6.3274
  13   0.0000      -0.003138        -0.0854
  14   0.0000       0.017132         0.4662
  15   0.0000       0.024438         0.6650
  16   0.0000       0.051817         1.4100
  17   0.0000       0.059851         1.6286

                 SPIN DOWN ORBITALS
  NO   OCC          E(Eh)            E(eV)
   0   1.0000    -101.722228     -2768.0026
   1   1.0000     -10.275751      -279.6174
   2   1.0000      -9.547352      -259.7966
   3   1.0000      -7.281401      -198.1370
   4   1.0000      -7.272764      -197.9020
   5   1.0000      -7.272417      -197.8925
   6   1.0000      -0.897183       -24.4136
   7   1.0000      -0.648605       -17.6494
   8   1.0000      -0.483135       -13.1468
   9   1.0000      -0.452245       -12.3062
  10   1.0000      -0.364233        -9.9113
  11   1.0000      -0.328147        -8.9293
  12   0.0000      -0.067607        -1.8397
  13   0.0000       0.003092         0.0841
  14   0.0000       0.022957         0.6247
  15   0.0000       0.026232         0.7138
  16   0.0000       0.064780         1.7628

MULLIKEN ATOMIC CHARGES AND SPIN POPULATIONS
--------------------------------------------
   0 C :   -0.247972    1.032627
   1 Cl:   -0.060657    0.099862
   2 H :    0.154326   -0.066246
   3 H :    0.154303   -0.066242
Sum of atomic charges         :   -0.0000000

LOEWDIN ATOMIC CHARGES AND SPIN POPULATIONS
-------------------------------------------
   0 C :   -0.220714    0.661045
   1 Cl:    0.547843    0.199785
   2 H :   -0.163561    0.069587
   3 H :   -0.163569    0.069583

  Mayer bond orders larger than 0.100000
B(  0-C ,  1-Cl) :   1.1691 B(  0-C ,  2-H ) :   0.9778 B(  0-C ,  3-H ) :   0.9779

FINAL SINGLE POINT ENERGY      -499.282808132212

DIPOLE MOMENT
-------------
                                X             Y             Z
Electronic contribution:      3.42124      -0.03136       0.01447
Nuclear contribution   :     -3.84413       0.03523      -0.01620
                        -----------------------------------------
Total Dipole Moment    :     -0.42290       0.00387      -0.00173
                        -----------------------------------------
Magnitude (a.u.)       :      0.42292
Magnitude (Debye)      :      1.07498

Rotational constants in cm-1:     9.233347     0.535086     0.505776
Rotational constants in MHz : 276808.786749 16041.484110 15162.778389

                             ****ORCA TERMINATED NORMALLY****
TOTAL RUN TIME: 0 days 0 hours 8 minutes 32 seconds 566 msec
