                         Program Version 5.0.4 -  RELEASE  -
|  1> # Formula: C-F-F-F_radical
|  2>
|  3> ! UKS NORI TightSCF PBE0 aug-cc-PVTZ-J xyzfile opt NOPOP
|  4> %base "C-F-F-F_radical_opt"
|  5>
|  6> * xyz 0 2
|  7> C	-0.005	-0.010	0.351
|  8> F	-0.767	-1.057	-0.119
|  9> F	-0.519	1.180	-0.115
| 10> F	1.291	-0.113	-0.116
| 11> *
| 12>
| 13> $new_job
| 14> ! UKS NORI PBE0 aug-cc-PVTZ-J NBO
| 15> %base "C-F-F-F_radical_EPR"
| 16>
| 17> *xyzfile 0 2
| 18>
| 19> %EPRNMR
| 20> 	GTENSOR		TRUE
| 21> 	NUCLEI		= ALL C  {AISO, ADIP, AORB}
| 22> 	NUCLEI		= ALL H  {AISO, ADIP, AORB}
| 23> 	NUCLEI		= ALL F  {AISO, ADIP, AORB}
| 24> 	NUCLEI		= ALL Cl {AISO, ADIP, AORB}
| 25> 	NUCLEI		= ALL Br {AISO, ADIP, AORB}
| 26> 	NUCLEI		= ALL I  {AISO, ADIP, AORB}
| 27> END
| 28>
| 29> %NBO
| 30> 	NBOKEYLIST = "$NBO NBO NPA AONBO=C PRINT=1 ARCHIVE $END"
| 31> END
| 32>
| 33>                          ****END OF INPUT****
 Total Charge           Charge          ....    0
 Multiplicity           Mult            ....    2
 Number of Electrons    NEL             ....   33
FINAL SINGLE POINT ENERGY      -337.371334963043
FINAL SINGLE POINT ENERGY      -337.382381521050
FINAL SINGLE POINT ENERGY      -337.383111385224
FINAL SINGLE POINT ENERGY      -337.383152314299
                    ***********************HURRAY********************
FINAL SINGLE POINT ENERGY      -337.383152662168

CARTESIAN COORDINATES (ANGSTROEM)
---------------------------------
  C     -0.000524   -0.001070    0.295616
  F     -0.731346   -1.016090   -0.102357
  F     -0.514295    1.142062   -0.095357
  F      1.246166   -0.124902   -0.096901

 Multiplicity           Mult            ....    2
 Number of Electrons    NEL             ....   33
 Basis Dimension        Dim             ....  184

ORBITAL ENERGIES
----------------
                 SPIN UP ORBITALS
  NO   OCC          E(Eh)            E(eV)
   0   1.0000     -24.842702      -676.0043
   1   1.0000     -24.842568      -676.0006
   2   1.0000     -24.842558      -676.0004
   3   1.0000     -10.489926      -285.4454
   4   1.0000      -1.390381       -37.8342
   5   1.0000      -1.303715       -35.4759
   6   1.0000      -1.303549       -35.4714
   7   1.0000      -0.752813       -20.4851
   8   1.0000      -0.649821       -17.6825
   9   1.0000      -0.649757       -17.6808
  10   1.0000      -0.616494       -16.7757
  11   1.0000      -0.523289       -14.2394
  12   1.0000      -0.523270       -14.2389
  13   1.0000      -0.490406       -13.3446
  14   1.0000      -0.490334       -13.3427
  15   1.0000      -0.464119       -12.6293
  16   1.0000      -0.293376        -7.9832
  17   0.0000       0.021621         0.5883
  18   0.0000       0.043642         1.1876
  19   0.0000       0.044703         1.2164
  20   0.0000       0.044706         1.2165
  21   0.0000       0.139802         3.8042

                 SPIN DOWN ORBITALS
  NO   OCC          E(Eh)            E(eV)
   0   1.0000     -24.839099      -675.9062
   1   1.0000     -24.838967      -675.9026
   2   1.0000     -24.838955      -675.9023
   3   1.0000     -10.472371      -284.9677
   4   1.0000      -1.380425       -37.5633
   5   1.0000      -1.295277       -35.2463
   6   1.0000      -1.295113       -35.2418
   7   1.0000      -0.735292       -20.0083
   8   1.0000      -0.640539       -17.4300
   9   1.0000      -0.640479       -17.4283
  10   1.0000      -0.575878       -15.6704
  11   1.0000      -0.513190       -13.9646
  12   1.0000      -0.513182       -13.9644
  13   1.0000      -0.481141       -13.0925
  14   1.0000      -0.481058       -13.0903
  15   1.0000      -0.461270       -12.5518
  16   0.0000      -0.088228        -2.4008
  17   0.0000       0.033519         0.9121
  18   0.0000       0.048097         1.3088
  19   0.0000       0.048098         1.3088
  20   0.0000       0.055645         1.5142

MULLIKEN ATOMIC CHARGES AND SPIN POPULATIONS
--------------------------------------------
   0 C :    0.471565    0.841812
   1 F :   -0.157040    0.052742
   2 F :   -0.157259    0.052721
   3 F :   -0.157265    0.052726
Sum of atomic charges         :    0.0000000

LOEWDIN ATOMIC CHARGES AND SPIN POPULATIONS
-------------------------------------------
   0 C :   -0.652775    0.623121
   1 F :    0.217863    0.125668
   2 F :    0.217470    0.125608
   3 F :    0.217442    0.125604

  Mayer bond orders larger than 0.100000
B(  0-C ,  1-F ) :   1.0857 B(  0-C ,  2-F ) :   1.0853 B(  0-C ,  3-F ) :   1.0853

FINAL SINGLE POINT ENERGY      -337.383152662883

DIPOLE MOMENT
-------------
                                X             Y             Z
Electronic contribution:     -0.00033      -0.00030      -0.08274
Nuclear contribution   :     -0.00034      -0.00069       0.19054
                        -----------------------------------------
Total Dipole Moment    :     -0.00067      -0.00099       0.10780
                        -----------------------------------------
Magnitude (a.u.)       :      0.10781
Magnitude (Debye)      :      0.27402

Rotational constants in cm-1:     0.364679     0.364642     0.188608
Rotational constants in MHz : 10932.815380 10931.705422  5654.323733

                             ****ORCA TERMINATED NORMALLY****
TOTAL RUN TIME: 0 days 0 hours 7 minutes 42 seconds 379 msec
