                         Program Version 5.0.4 -  RELEASE  -
|  1> # Formula: C-Cl-F-F_radical
|  2>
|  3> ! UKS NORI TightSCF PBE0 aug-cc-PVTZ-J xyzfile opt NOPOP
|  4> %base "C-Cl-F-F_radical_opt"
|  5>
|  6> * xyz 0 2
|  7> C	-0.136	-0.007	0.385
|  8> Cl	1.584	-0.057	-0.098
|  9> F	-0.654	1.166	-0.140
| 10> F	-0.794	-1.102	-0.146
| 11> *
| 12>
| 13> $new_job
| 14> ! UKS NORI PBE0 aug-cc-PVTZ-J NBO
| 15> %base "C-Cl-F-F_radical_EPR"
| 16>
| 17> *xyzfile 0 2
| 18>
| 19> %EPRNMR
| 20> 	GTENSOR		TRUE
| 21> 	NUCLEI		= ALL C  {AISO, ADIP, AORB}
| 22> 	NUCLEI		= ALL H  {AISO, ADIP, AORB}
| 23> 	NUCLEI		= ALL F  {AISO, ADIP, AORB}
| 24> 	NUCLEI		= ALL Cl {AISO, ADIP, AORB}
| 25> 	NUCLEI		= ALL Br {AISO, ADIP, AORB}
| 26> 	NUCLEI		= ALL I  {AISO, ADIP, AORB}
| 27> END
| 28>
| 29> %NBO
| 30> 	NBOKEYLIST = "$NBO NBO NPA AONBO=C PRINT=1 ARCHIVE $END"
| 31> END
| 32>
| 33>                          ****END OF INPUT****
 Total Charge           Charge          ....    0
 Multiplicity           Mult            ....    2
 Number of Electrons    NEL             ....   41
FINAL SINGLE POINT ENERGY      -697.649672145203
FINAL SINGLE POINT ENERGY      -697.661577604321
FINAL SINGLE POINT ENERGY      -697.662927188194
FINAL SINGLE POINT ENERGY      -697.663056179878
FINAL SINGLE POINT ENERGY      -697.663065156703
FINAL SINGLE POINT ENERGY      -697.663066899006
                    ***********************HURRAY********************
FINAL SINGLE POINT ENERGY      -697.663066903238

CARTESIAN COORDINATES (ANGSTROEM)
---------------------------------
  C     -0.103297    0.003684    0.288204
  Cl     1.576829   -0.074866   -0.066434
  F     -0.685325    1.114921   -0.105890
  F     -0.788206   -1.043739   -0.114879

 Multiplicity           Mult            ....    2
 Number of Electrons    NEL             ....   41
 Basis Dimension        Dim             ....  206

ORBITAL ENERGIES
----------------
                 SPIN UP ORBITALS
  NO   OCC          E(Eh)            E(eV)
   0   1.0000    -101.748351     -2768.7134
   1   1.0000     -24.840838      -675.9536
   2   1.0000     -24.840802      -675.9526
   3   1.0000     -10.463648      -284.7303
   4   1.0000      -9.574230      -260.5281
   5   1.0000      -7.308803      -198.8827
   6   1.0000      -7.300346      -198.6525
   7   1.0000      -7.299248      -198.6226
   8   1.0000      -1.360873       -37.0312
   9   1.0000      -1.297913       -35.3180
  10   1.0000      -0.928233       -25.2585
  11   1.0000      -0.725624       -19.7452
  12   1.0000      -0.631006       -17.1705
  13   1.0000      -0.593007       -16.1366
  14   1.0000      -0.590218       -16.0607
  15   1.0000      -0.504813       -13.7367
  16   1.0000      -0.478062       -13.0087
  17   1.0000      -0.475636       -12.9427
  18   1.0000      -0.390656       -10.6303
  19   1.0000      -0.372832       -10.1453
  20   1.0000      -0.271544        -7.3891
  21   0.0000       0.005631         0.1532
  22   0.0000       0.016695         0.4543
  23   0.0000       0.039839         1.0841
  24   0.0000       0.046723         1.2714
  25   0.0000       0.047135         1.2826

                 SPIN DOWN ORBITALS
  NO   OCC          E(Eh)            E(eV)
   0   1.0000    -101.747275     -2768.6841
   1   1.0000     -24.837452      -675.8614
   2   1.0000     -24.837416      -675.8604
   3   1.0000     -10.446842      -284.2730
   4   1.0000      -9.573172      -260.4992
   5   1.0000      -7.306855      -198.8296
   6   1.0000      -7.298631      -198.6058
   7   1.0000      -7.298271      -198.5960
   8   1.0000      -1.351831       -36.7852
   9   1.0000      -1.290317       -35.1113
  10   1.0000      -0.918830       -25.0026
  11   1.0000      -0.709158       -19.2972
  12   1.0000      -0.622611       -16.9421
  13   1.0000      -0.584446       -15.9036
  14   1.0000      -0.553180       -15.0528
  15   1.0000      -0.489034       -13.3073
  16   1.0000      -0.473755       -12.8915
  17   1.0000      -0.464909       -12.6508
  18   1.0000      -0.377396       -10.2695
  19   1.0000      -0.370783       -10.0895
  20   0.0000      -0.089102        -2.4246
  21   0.0000       0.016154         0.4396
  22   0.0000       0.024720         0.6727
  23   0.0000       0.043100         1.1728
  24   0.0000       0.049429         1.3450

MULLIKEN ATOMIC CHARGES AND SPIN POPULATIONS
--------------------------------------------
   0 C :    0.331978    0.799461
   1 Cl:   -0.018511    0.100304
   2 F :   -0.156779    0.050108
   3 F :   -0.156688    0.050127
Sum of atomic charges         :   -0.0000000

LOEWDIN ATOMIC CHARGES AND SPIN POPULATIONS
-------------------------------------------
   0 C :   -0.937577    0.609404
   1 Cl:    0.595837    0.150394
   2 F :    0.170817    0.120092
   3 F :    0.170923    0.120111

  Mayer bond orders larger than 0.100000
B(  0-C ,  1-Cl) :   1.1747 B(  0-C ,  2-F ) :   1.0353 B(  0-C ,  3-F ) :   1.0354

FINAL SINGLE POINT ENERGY      -697.663066901032

DIPOLE MOMENT
-------------
                                X             Y             Z
Electronic contribution:     -0.10609       0.00546      -0.12882
Nuclear contribution   :      0.24596      -0.01249       0.17827
                        -----------------------------------------
Total Dipole Moment    :      0.13987      -0.00703       0.04944
                        -----------------------------------------
Magnitude (a.u.)       :      0.14851
Magnitude (Debye)      :      0.37749

Rotational constants in cm-1:     0.367506     0.164762     0.116120
Rotational constants in MHz : 11017.551765  4939.439858  3481.187886

                             ****ORCA TERMINATED NORMALLY****
TOTAL RUN TIME: 0 days 0 hours 15 minutes 11 seconds 203 msec
