                         Program Version 5.0.4 -  RELEASE  -
|  1> # Formula: C-H-H-H_radical
|  2>
|  3> ! UKS NORI TightSCF PBE0 aug-cc-PVTZ-J xyzfile opt NOPOP
|  4> %base "C-H-H-H_radical_opt"
|  5>
|  6> * xyz 0 2
|  7> C	0.000	-0.001	0.245
|  8> H	1.026	-0.238	-0.082
|  9> H	-0.718	-0.774	-0.082
| 10> H	-0.308	1.012	-0.081
| 11> *
| 12>
| 13> $new_job
| 14> ! UKS NORI PBE0 aug-cc-PVTZ-J NBO
| 15> %base "C-H-H-H_radical_EPR"
| 16>
| 17> *xyzfile 0 2
| 18>
| 19> %EPRNMR
| 20> 	GTENSOR		TRUE
| 21> 	NUCLEI		= ALL C  {AISO, ADIP, AORB}
| 22> 	NUCLEI		= ALL H  {AISO, ADIP, AORB}
| 23> 	NUCLEI		= ALL F  {AISO, ADIP, AORB}
| 24> 	NUCLEI		= ALL Cl {AISO, ADIP, AORB}
| 25> 	NUCLEI		= ALL Br {AISO, ADIP, AORB}
| 26> 	NUCLEI		= ALL I  {AISO, ADIP, AORB}
| 27> END
| 28>
| 29> %NBO
| 30> 	NBOKEYLIST = "$NBO NBO NPA AONBO=C PRINT=1 ARCHIVE $END"
| 31> END
| 32>
| 33>                          ****END OF INPUT****
 Total Charge           Charge          ....    0
 Multiplicity           Mult            ....    2
 Number of Electrons    NEL             ....    9
FINAL SINGLE POINT ENERGY       -39.791968768322
FINAL SINGLE POINT ENERGY       -39.797117971162
FINAL SINGLE POINT ENERGY       -39.799660409150
FINAL SINGLE POINT ENERGY       -39.800339518212
FINAL SINGLE POINT ENERGY       -39.800507944823
FINAL SINGLE POINT ENERGY       -39.800519517298
                    ***********************HURRAY********************
FINAL SINGLE POINT ENERGY       -39.800519632229

CARTESIAN COORDINATES (ANGSTROEM)
---------------------------------
  C      0.000187   -0.000296    0.000067
  H      1.051830   -0.242963   -0.000889
  H     -0.736138   -0.789446   -0.000193
  H     -0.315880    1.031705    0.001015

 Multiplicity           Mult            ....    2
 Number of Electrons    NEL             ....    9
 Basis Dimension        Dim             ....  106

ORBITAL ENERGIES
----------------
                 SPIN UP ORBITALS
  NO   OCC          E(Eh)            E(eV)
   0   1.0000     -10.236717      -278.5552
   1   1.0000      -0.710434       -19.3319
   2   1.0000      -0.435151       -11.8411
   3   1.0000      -0.435018       -11.8375
   4   1.0000      -0.250871        -6.8266
   5   0.0000      -0.000108        -0.0029
   6   0.0000       0.030599         0.8326
   7   0.0000       0.030610         0.8329
   8   0.0000       0.056128         1.5273
   9   0.0000       0.095994         2.6121

                 SPIN DOWN ORBITALS
  NO   OCC          E(Eh)            E(eV)
   0   1.0000     -10.221275      -278.1350
   1   1.0000      -0.664650       -18.0860
   2   1.0000      -0.424592       -11.5537
   3   1.0000      -0.424457       -11.5501
   4   0.0000      -0.059956        -1.6315
   5   0.0000       0.007556         0.2056
   6   0.0000       0.033701         0.9171
   7   0.0000       0.033712         0.9174
   8   0.0000       0.085709         2.3323

MULLIKEN ATOMIC CHARGES AND SPIN POPULATIONS
--------------------------------------------
   0 C :   -0.409283    1.227052
   1 H :    0.136427   -0.075678
   2 H :    0.136421   -0.075686
   3 H :    0.136435   -0.075688
Sum of atomic charges         :    0.0000000

LOEWDIN ATOMIC CHARGES AND SPIN POPULATIONS
-------------------------------------------
   0 C :    0.469197    0.737672
   1 H :   -0.156405    0.087451
   2 H :   -0.156395    0.087438
   3 H :   -0.156397    0.087439

  Mayer bond orders larger than 0.100000
B(  0-C ,  1-H ) :   0.9960 B(  0-C ,  2-H ) :   0.9959 B(  0-C ,  3-H ) :   0.9959

FINAL SINGLE POINT ENERGY       -39.800519632223

DIPOLE MOMENT
-------------
                                X             Y             Z
Electronic contribution:      0.00051      -0.00013       0.00013
Nuclear contribution   :     -0.00056       0.00014      -0.00020
                        -----------------------------------------
Total Dipole Moment    :     -0.00006       0.00001      -0.00007
                        -----------------------------------------
Magnitude (a.u.)       :      0.00009
Magnitude (Debye)      :      0.00024

Rotational constants in cm-1:     9.575065     9.566901     4.785491
Rotational constants in MHz : 287053.219358 286808.467981 143465.397310

                             ****ORCA TERMINATED NORMALLY****
TOTAL RUN TIME: 0 days 0 hours 1 minutes 54 seconds 31 msec
