                         Program Version 5.0.4 -  RELEASE  -
|  1> # Formula: C-Cl-Cl-H_radical
|  2>
|  3> ! UKS NORI TightSCF PBE0 aug-cc-PVTZ-J xyzfile opt NOPOP
|  4> %base "C-Cl-Cl-H_radical_opt"
|  5>
|  6> * xyz 0 2
|  7> C	0.004	0.210	0.354
|  8> Cl	1.458	-0.695	-0.093
|  9> Cl	-1.454	-0.704	-0.091
| 10> H	-0.008	1.190	-0.171
| 11> *
| 12>
| 13> $new_job
| 14> ! UKS NORI PBE0 aug-cc-PVTZ-J NBO
| 15> %base "C-Cl-Cl-H_radical_EPR"
| 16>
| 17> *xyzfile 0 2
| 18>
| 19> %EPRNMR
| 20> 	GTENSOR		TRUE
| 21> 	NUCLEI		= ALL C  {AISO, ADIP, AORB}
| 22> 	NUCLEI		= ALL H  {AISO, ADIP, AORB}
| 23> 	NUCLEI		= ALL F  {AISO, ADIP, AORB}
| 24> 	NUCLEI		= ALL Cl {AISO, ADIP, AORB}
| 25> 	NUCLEI		= ALL Br {AISO, ADIP, AORB}
| 26> 	NUCLEI		= ALL I  {AISO, ADIP, AORB}
| 27> END
| 28>
| 29> %NBO
| 30> 	NBOKEYLIST = "$NBO NBO NPA AONBO=C PRINT=1 ARCHIVE $END"
| 31> END
| 32>
| 33>                          ****END OF INPUT****
 Total Charge           Charge          ....    0
 Multiplicity           Mult            ....    2
 Number of Electrons    NEL             ....   41
FINAL SINGLE POINT ENERGY      -958.750463124151
FINAL SINGLE POINT ENERGY      -958.757930775072
FINAL SINGLE POINT ENERGY      -958.761193243663
FINAL SINGLE POINT ENERGY      -958.761500626516
FINAL SINGLE POINT ENERGY      -958.761602483209
FINAL SINGLE POINT ENERGY      -958.761615681203
FINAL SINGLE POINT ENERGY      -958.761616962911
                    ***********************HURRAY********************
FINAL SINGLE POINT ENERGY      -958.761617018749

CARTESIAN COORDINATES (ANGSTROEM)
---------------------------------
  C     -0.000416    0.152737    0.131320
  Cl     1.463555   -0.675848   -0.027898
  Cl    -1.458564   -0.686670   -0.024772
  H     -0.004576    1.210782   -0.079649

 Multiplicity           Mult            ....    2
 Number of Electrons    NEL             ....   41
 Basis Dimension        Dim             ....  202

ORBITAL ENERGIES
----------------
                 SPIN UP ORBITALS
  NO   OCC          E(Eh)            E(eV)
   0   1.0000    -101.736614     -2768.3940
   1   1.0000    -101.736612     -2768.3940
   2   1.0000     -10.346953      -281.5549
   3   1.0000      -9.561846      -260.1910
   4   1.0000      -9.561842      -260.1909
   5   1.0000      -7.295349      -198.5165
   6   1.0000      -7.295346      -198.5164
   7   1.0000      -7.289045      -198.3450
   8   1.0000      -7.289043      -198.3449
   9   1.0000      -7.286992      -198.2891
  10   1.0000      -7.286988      -198.2890
  11   1.0000      -0.956446       -26.0262
  12   1.0000      -0.878660       -23.9096
  13   1.0000      -0.666998       -18.1499
  14   1.0000      -0.512728       -13.9520
  15   1.0000      -0.488869       -13.3028
  16   1.0000      -0.443357       -12.0643
  17   1.0000      -0.365179        -9.9370
  18   1.0000      -0.355025        -9.6607
  19   1.0000      -0.344645        -9.3783
  20   1.0000      -0.232401        -6.3239
  21   0.0000      -0.012252        -0.3334
  22   0.0000       0.002344         0.0638
  23   0.0000       0.024366         0.6630
  24   0.0000       0.037364         1.0167
  25   0.0000       0.050439         1.3725

                 SPIN DOWN ORBITALS
  NO   OCC          E(Eh)            E(eV)
   0   1.0000    -101.735811     -2768.3722
   1   1.0000    -101.735809     -2768.3721
   2   1.0000     -10.331727      -281.1406
   3   1.0000      -9.561068      -260.1699
   4   1.0000      -9.561063      -260.1698
   5   1.0000      -7.295302      -198.5153
   6   1.0000      -7.295300      -198.5152
   7   1.0000      -7.286550      -198.2771
   8   1.0000      -7.286546      -198.2770
   9   1.0000      -7.285923      -198.2601
  10   1.0000      -7.285921      -198.2600
  11   1.0000      -0.943293       -25.6683
  12   1.0000      -0.873707       -23.7748
  13   1.0000      -0.639387       -17.3986
  14   1.0000      -0.504173       -13.7193
  15   1.0000      -0.480523       -13.0757
  16   1.0000      -0.404873       -11.0171
  17   1.0000      -0.352769        -9.5993
  18   1.0000      -0.349416        -9.5081
  19   1.0000      -0.342720        -9.3259
  20   0.0000      -0.079337        -2.1589
  21   0.0000      -0.001639        -0.0446
  22   0.0000       0.007972         0.2169
  23   0.0000       0.028010         0.7622
  24   0.0000       0.040262         1.0956

MULLIKEN ATOMIC CHARGES AND SPIN POPULATIONS
--------------------------------------------
   0 C :   -0.130847    0.864024
   1 Cl:   -0.034406    0.091927
   2 Cl:   -0.034415    0.091922
   3 H :    0.199668   -0.047873
Sum of atomic charges         :   -0.0000000

LOEWDIN ATOMIC CHARGES AND SPIN POPULATIONS
-------------------------------------------
   0 C :   -0.940045    0.613051
   1 Cl:    0.558039    0.164574
   2 Cl:    0.558024    0.164567
   3 H :   -0.176019    0.057808

  Mayer bond orders larger than 0.100000
B(  0-C ,  1-Cl) :   1.1326 B(  0-C ,  2-Cl) :   1.1326 B(  0-C ,  3-H ) :   0.9327

FINAL SINGLE POINT ENERGY      -958.761617018273

DIPOLE MOMENT
-------------
                                X             Y             Z
Electronic contribution:      0.00615      -1.67029      -0.06313
Nuclear contribution   :     -0.00751       2.02318      -0.01174
                        -----------------------------------------
Total Dipole Moment    :     -0.00136       0.35289      -0.07486
                        -----------------------------------------
Magnitude (a.u.)       :      0.36074
Magnitude (Debye)      :      0.91694

Rotational constants in cm-1:     1.600969     0.111286     0.104202
Rotational constants in MHz : 47995.839790  3336.271430  3123.884256

                             ****ORCA TERMINATED NORMALLY****
TOTAL RUN TIME: 0 days 0 hours 17 minutes 37 seconds 329 msec
