                         Program Version 5.0.4 -  RELEASE  -
|  1> # Formula: C-F-H-H_radical
|  2>
|  3> ! UKS NORI TightSCF PBE0 aug-cc-PVTZ-J xyzfile opt NOPOP
|  4> %base "C-F-H-H_radical_opt"
|  5>
|  6> * xyz 0 2
|  7> C	-0.079	0.017	0.303
|  8> F	1.239	-0.020	-0.083
|  9> H	-0.570	-0.895	-0.106
| 10> H	-0.590	0.898	-0.113
| 11> *
| 12>
| 13> $new_job
| 14> ! UKS NORI PBE0 aug-cc-PVTZ-J NBO
| 15> %base "C-F-H-H_radical_EPR"
| 16>
| 17> *xyzfile 0 2
| 18>
| 19> %EPRNMR
| 20> 	GTENSOR		TRUE
| 21> 	NUCLEI		= ALL C  {AISO, ADIP, AORB}
| 22> 	NUCLEI		= ALL H  {AISO, ADIP, AORB}
| 23> 	NUCLEI		= ALL F  {AISO, ADIP, AORB}
| 24> 	NUCLEI		= ALL Cl {AISO, ADIP, AORB}
| 25> 	NUCLEI		= ALL Br {AISO, ADIP, AORB}
| 26> 	NUCLEI		= ALL I  {AISO, ADIP, AORB}
| 27> END
| 28>
| 29> %NBO
| 30> 	NBOKEYLIST = "$NBO NBO NPA AONBO=C PRINT=1 ARCHIVE $END"
| 31> END
| 32>
| 33>                          ****END OF INPUT****
 Total Charge           Charge          ....    0
 Multiplicity           Mult            ....    2
 Number of Electrons    NEL             ....   17
FINAL SINGLE POINT ENERGY      -138.975410346831
FINAL SINGLE POINT ENERGY      -138.982420597729
FINAL SINGLE POINT ENERGY      -138.984813613882
FINAL SINGLE POINT ENERGY      -138.985202839336
FINAL SINGLE POINT ENERGY      -138.985323600455
FINAL SINGLE POINT ENERGY      -138.985342244571
FINAL SINGLE POINT ENERGY      -138.985344490846
                    ***********************HURRAY********************
FINAL SINGLE POINT ENERGY      -138.985344728236

CARTESIAN COORDINATES (ANGSTROEM)
---------------------------------
  C     -0.092219    0.000880    0.109762
  F      1.231268   -0.002992   -0.033059
  H     -0.571695   -0.957187   -0.031985
  H     -0.567355    0.959299   -0.043718

 Multiplicity           Mult            ....    2
 Number of Electrons    NEL             ....   17
 Basis Dimension        Dim             ....  132

ORBITAL ENERGIES
----------------
                 SPIN UP ORBITALS
  NO   OCC          E(Eh)            E(eV)
   0   1.0000     -24.796129      -674.7370
   1   1.0000     -10.312269      -280.6111
   2   1.0000      -1.273995       -34.6672
   3   1.0000      -0.718824       -19.5602
   4   1.0000      -0.538226       -14.6459
   5   1.0000      -0.537436       -14.6244
   6   1.0000      -0.502978       -13.6867
   7   1.0000      -0.392331       -10.6759
   8   1.0000      -0.237236        -6.4555
   9   0.0000       0.001182         0.0322
  10   0.0000       0.025738         0.7004
  11   0.0000       0.031061         0.8452
  12   0.0000       0.051305         1.3961
  13   0.0000       0.094997         2.5850

                 SPIN DOWN ORBITALS
  NO   OCC          E(Eh)            E(eV)
   0   1.0000     -24.791774      -674.6185
   1   1.0000     -10.296421      -280.1799
   2   1.0000      -1.263838       -34.3908
   3   1.0000      -0.683953       -18.6113
   4   1.0000      -0.530354       -14.4317
   5   1.0000      -0.526080       -14.3154
   6   1.0000      -0.465773       -12.6743
   7   1.0000      -0.386404       -10.5146
   8   0.0000      -0.050585        -1.3765
   9   0.0000       0.007602         0.2069
  10   0.0000       0.028568         0.7774
  11   0.0000       0.036577         0.9953
  12   0.0000       0.074201         2.0191

MULLIKEN ATOMIC CHARGES AND SPIN POPULATIONS
--------------------------------------------
   0 C :   -0.084973    1.066578
   1 F :   -0.216114    0.053905
   2 H :    0.150542   -0.060242
   3 H :    0.150545   -0.060241
Sum of atomic charges         :   -0.0000000

LOEWDIN ATOMIC CHARGES AND SPIN POPULATIONS
-------------------------------------------
   0 C :    0.121441    0.684280
   1 F :    0.121762    0.156791
   2 H :   -0.121601    0.079464
   3 H :   -0.121603    0.079465

  Mayer bond orders larger than 0.100000
B(  0-C ,  1-F ) :   0.9969 B(  0-C ,  2-H ) :   0.9866 B(  0-C ,  3-H ) :   0.9866

FINAL SINGLE POINT ENERGY      -138.985344728308

DIPOLE MOMENT
-------------
                                X             Y             Z
Electronic contribution:      2.32628      -0.00545      -0.03067
Nuclear contribution   :     -2.81732       0.00602      -0.05805
                        -----------------------------------------
Total Dipole Moment    :     -0.49104       0.00057      -0.08872
                        -----------------------------------------
Magnitude (a.u.)       :      0.49900
Magnitude (Debye)      :      1.26835

Rotational constants in cm-1:     8.820378     1.041388     0.937634
Rotational constants in MHz : 264428.294233 31220.031177 28109.573703

                             ****ORCA TERMINATED NORMALLY****
TOTAL RUN TIME: 0 days 0 hours 3 minutes 55 seconds 546 msec
