                         Program Version 5.0.4 -  RELEASE  -
|  1> # Formula: C-Cl-Cl-F_radical
|  2>
|  3> ! UKS NORI TightSCF PBE0 aug-cc-PVTZ-J xyzfile opt NOPOP
|  4> %base "C-Cl-Cl-F_radical_opt"
|  5>
|  6> * xyz 0 2
|  7> C	0.000	0.106	0.397
|  8> Cl	1.494	-0.703	-0.120
|  9> Cl	-1.447	-0.772	-0.119
| 10> F	-0.047	1.369	-0.159
| 11> *
| 12>
| 13> $new_job
| 14> ! UKS NORI PBE0 aug-cc-PVTZ-J NBO
| 15> %base "C-Cl-Cl-F_radical_EPR"
| 16>
| 17> *xyzfile 0 2
| 18>
| 19> %EPRNMR
| 20> 	GTENSOR		TRUE
| 21> 	NUCLEI		= ALL C  {AISO, ADIP, AORB}
| 22> 	NUCLEI		= ALL H  {AISO, ADIP, AORB}
| 23> 	NUCLEI		= ALL F  {AISO, ADIP, AORB}
| 24> 	NUCLEI		= ALL Cl {AISO, ADIP, AORB}
| 25> 	NUCLEI		= ALL Br {AISO, ADIP, AORB}
| 26> 	NUCLEI		= ALL I  {AISO, ADIP, AORB}
| 27> END
| 28>
| 29> %NBO
| 30> 	NBOKEYLIST = "$NBO NBO NPA AONBO=C PRINT=1 ARCHIVE $END"
| 31> END
| 32>
| 33>                          ****END OF INPUT****
 Total Charge           Charge          ....    0
 Multiplicity           Mult            ....    2
 Number of Electrons    NEL             ....   49
FINAL SINGLE POINT ENERGY     -1057.936610699467
FINAL SINGLE POINT ENERGY     -1057.944917095671
FINAL SINGLE POINT ENERGY     -1057.946377633774
FINAL SINGLE POINT ENERGY     -1057.946477018047
FINAL SINGLE POINT ENERGY     -1057.946484040401
FINAL SINGLE POINT ENERGY     -1057.946485552296
                    ***********************HURRAY********************
FINAL SINGLE POINT ENERGY     -1057.946485616611

CARTESIAN COORDINATES (ANGSTROEM)
---------------------------------
  C     -0.002313    0.089421    0.264311
  Cl     1.481661   -0.682382   -0.079004
  Cl    -1.442097   -0.762700   -0.076997
  F     -0.037251    1.355661   -0.109310

 Multiplicity           Mult            ....    2
 Number of Electrons    NEL             ....   49
 Basis Dimension        Dim             ....  228

ORBITAL ENERGIES
----------------
                 SPIN UP ORBITALS
  NO   OCC          E(Eh)            E(eV)
   0   1.0000    -101.748201     -2768.7093
   1   1.0000    -101.748188     -2768.7089
   2   1.0000     -24.836262      -675.8290
   3   1.0000     -10.434730      -283.9434
   4   1.0000      -9.573834      -260.5173
   5   1.0000      -9.573820      -260.5169
   6   1.0000      -7.308045      -198.8620
   7   1.0000      -7.308031      -198.8616
   8   1.0000      -7.300229      -198.6493
   9   1.0000      -7.300216      -198.6490
  10   1.0000      -7.298873      -198.6124
  11   1.0000      -7.298860      -198.6121
  12   1.0000      -1.323460       -36.0132
  13   1.0000      -0.959183       -26.1007
  14   1.0000      -0.894272       -24.3344
  15   1.0000      -0.692348       -18.8398
  16   1.0000      -0.572100       -15.5676
  17   1.0000      -0.563673       -15.3383
  18   1.0000      -0.555714       -15.1217
  19   1.0000      -0.446588       -12.1523
  20   1.0000      -0.423823       -11.5328
  21   1.0000      -0.389170       -10.5898
  22   1.0000      -0.371697       -10.1144
  23   1.0000      -0.352585        -9.5943
  24   1.0000      -0.253888        -6.9086
  25   0.0000      -0.020200        -0.5497
  26   0.0000       0.011485         0.3125
  27   0.0000       0.023123         0.6292
  28   0.0000       0.042093         1.1454
  29   0.0000       0.049456         1.3458

                 SPIN DOWN ORBITALS
  NO   OCC          E(Eh)            E(eV)
   0   1.0000    -101.747345     -2768.6860
   1   1.0000    -101.747332     -2768.6857
   2   1.0000     -24.832961      -675.7392
   3   1.0000     -10.418519      -283.5023
   4   1.0000      -9.572993      -260.4944
   5   1.0000      -9.572979      -260.4940
   6   1.0000      -7.307080      -198.8358
   7   1.0000      -7.307065      -198.8354
   8   1.0000      -7.298390      -198.5993
   9   1.0000      -7.298377      -198.5989
  10   1.0000      -7.297938      -198.5870
  11   1.0000      -7.297926      -198.5867
  12   1.0000      -1.315254       -35.7899
  13   1.0000      -0.948482       -25.8095
  14   1.0000      -0.888764       -24.1845
  15   1.0000      -0.675517       -18.3818
  16   1.0000      -0.559939       -15.2367
  17   1.0000      -0.557017       -15.1572
  18   1.0000      -0.520912       -14.1747
  19   1.0000      -0.440257       -11.9800
  20   1.0000      -0.401453       -10.9241
  21   1.0000      -0.386919       -10.5286
  22   1.0000      -0.361864        -9.8468
  23   1.0000      -0.350413        -9.5352
  24   0.0000      -0.089957        -2.4479
  25   0.0000      -0.009223        -0.2510
  26   0.0000       0.016218         0.4413
  27   0.0000       0.029154         0.7933
  28   0.0000       0.045957         1.2506

MULLIKEN ATOMIC CHARGES AND SPIN POPULATIONS
--------------------------------------------
   0 C :    0.166889    0.770302
   1 Cl:   -0.002650    0.089473
   2 Cl:   -0.002569    0.089487
   3 F :   -0.161670    0.050738
Sum of atomic charges         :   -0.0000000

LOEWDIN ATOMIC CHARGES AND SPIN POPULATIONS
-------------------------------------------
   0 C :   -1.265879    0.600227
   1 Cl:    0.574905    0.140511
   2 Cl:    0.574957    0.140532
   3 F :    0.116017    0.118729

  Mayer bond orders larger than 0.100000
B(  0-C ,  1-Cl) :   1.1395 B(  0-C ,  2-Cl) :   1.1396 B(  0-C ,  3-F ) :   0.9727

FINAL SINGLE POINT ENERGY     -1057.946485616901

DIPOLE MOMENT
-------------
                                X             Y             Z
Electronic contribution:     -0.00074       0.01917      -0.15535
Nuclear contribution   :      0.00505      -0.18111       0.15361
                        -----------------------------------------
Total Dipole Moment    :      0.00431      -0.16194      -0.00174
                        -----------------------------------------
Magnitude (a.u.)       :      0.16201
Magnitude (Debye)      :      0.41178

Rotational constants in cm-1:     0.249597     0.110217     0.077370
Rotational constants in MHz :  7482.728081  3304.232020  2319.486110

                             ****ORCA TERMINATED NORMALLY****
TOTAL RUN TIME: 0 days 0 hours 22 minutes 41 seconds 169 msec
